ITEM: TIMESTEP
11.000000
ITEM: NUMBER OF ATOMS
20000
ITEM: BOX BOUNDS pp pp pp
0 323.604319
0 323.604319
0 0
ITEM: ATOMS id type x y vx vy radius m coll
0 1 228.662 33.429330 0.872681 0.924584 1.000000 1.000000 0
1 1 43.094 234.329449 -0.485011 -0.863866 1.000000 1.000000 0
2 1 4.775 80.417994 0.764169 -1.031277 1.000000 1.000000 0
3 1 89.888 35.165428 0.024232 -0.480556 1.000000 1.000000 0
4 1 67.293 245.076239 0.742654 -1.878603 1.000000 1.000000 0
5 1 125.529 230.087594 -1.766220 0.281559 1.000000 1.000000 0
6 1 250.309 232.552136 -1.009515 0.068598 1.000000 1.000000 0
7 1 277.270 40.051955 1.101568 0.797878 1.000000 1.000000 0
8 1 8.977 95.987061 -1.801989 -1.169409 1.000000 1.000000 0
9 1 113.766 65.813695 1.678516 -1.293949 1.000000 1.000000 0
10 1 317.437 169.792747 0.015717 0.972542 1.000000 1.000000 0
11 1 22.634 188.016257 -1.478115 -0.734672 1.000000 1.000000 0
12 1 284.313 104.339205 -0.405104 1.455956 1.000000 1.000000 0
13 1 87.460 179.103872 -0.365043 0.225244 1.000000 1.000000 0
14 1 238.057 281.465277 0.223310 0.732290 1.000000 1.000000 0
15 1 241.590 251.505501 0.152824 0.408612 1.000000 1.000000 0
16 1 27.779 1.621831 -0.513167 0.918344 1.000000 1.000000 0
17 1 315.704 266.883303 -0.161482 -0.013457 1.000000 1.000000 0
18 1 88.755 132.357831 -0.728600 1.365258 1.000000 1.000000 0
19 1 230.262 272.542485 -1.184726 0.208476 1.000000 1.000000 0
20 1 126.729 254.491451 1.212563 0.367032 1.000000 1.000000 0
21 1 307.552 113.590690 0.142280 0.788812 1.000000 1.000000 0
22 1 251.248 77.913288 -0.809214 -0.453787 1.000000 1.000000 0
23 1 186.294 248.448932 -0.155263 -0.569324 1.000000 1.000000 0
24 1 63.256 213.455387 1.059245 -0.335658 1.000000 1.000000 0
25 1 32.726 219.013221 1.510515 0.488856 1.000000 1.000000 0
26 1 136.095 263.985547 -1.410788 1.861083 1.000000 1.000000 0
27 1 167.538 165.400967 0.894891 -0.524753 1.000000 1.000000 0
28 1 160.740 117.604830 -1.582303 0.300425 1.000000 1.000000 0
29 1 68.104 141.268613 0.882215 -1.844909 1.000000 1.000000 0
30 1 236.334 43.291508 0.344187 -0.595820 1.000000 1.000000 0
31 1 111.215 309.799917 -0.866892 0.051034 1.000000 1.000000 0
32 1 230.984 147.709668 1.167288 -0.325983 1.000000 1.000000 0
33 1 110.156 200.974273 -0.912261 -0.089624 1.000000 1.000000 0
34 1 173.009 23.364319 0.783449 -0.356078 1.000000 1.000000 0
35 1 266.368 1.506322 0.255865 -1.480950 1.000000 1.000000 0
36 1 319.478 269.412720 0.597241 0.313473 1.000000 1.000000 0
37 1 72.346 145.904905 0.909749 0.397897 1.000000 1.000000 0
38 1 205.700 242.166363 -2.070273 0.114021 1.000000 1.000000 0
39 1 178.261 58.854649 -1.289999 -1.374448 1.000000 1.000000 0
40 1 301.702 203.752724 -0.188902 -1.231405 1.000000 1.000000 0
41 1 88.703 297.810746 0.798598 -1.697051 1.000000 1.000000 0
42 1 256.913 50.819374 0.596704 -0.404844 1.000000 1.000000 0
43 1 230.213 154.997801 -1.145795 -0.469077 1.000000 1.000000 0
44 1 280.726 322.375156 -0.122891 1.302299 1.000000 1.000000 0
45 1 20.309 61.832101 1.523054 -1.107776 1.000000 1.000000 0
46 1 13.793 4.596184 -2.155467 -0.801641 1.000000 1.000000 0
47 1 179.297 294.335172 0.377239 -0.301692 1.000000 1.000000 0
48 1 151.046 308.090114 -0.669830 0.455559 1.000000 1.000000 0
49 1 269.202 216.768852 0.948167 -1.806096 1.000000 1.000000 0
50 1 0.279 101.608199 -0.433131 -0.410403 1.000000 1.000000 0
51 1 102.129 216.043048 -1.543198 0.555320 1.000000 1.000000 0
52 1 33.148 257.395686 1.477803 -0.807407 1.000000 1.000000 0
53 1 272.628 192.087751 -0.526340 -0.218459 1.000000 1.000000 0
54 1 257.508 302.831079 -1.992113 2.618563 1.000000 1.000000 0
55 1 241.599 85.450551 -0.921531 -1.544764 1.000000 1.000000 0
56 1 271.120 159.586123 1.851045 0.145370 1.000000 1.000000 0
57 1 253.088 151.153761 0.535824 0.438648 1.000000 1.000000 0
58 1 231.058 124.431951 -0.265602 -1.815104 1.000000 1.000000 0
59 1 268.560 129.745451 -0.934851 -1.680480 1.000000 1.000000 0
60 1 115.606 128.861451 -1.254081 0.760608 1.000000 1.000000 0
61 1 33.178 98.513974 0.187293 0.552188 1.000000 1.000000 0
62 1 151.851 281.454658 0.180323 -1.233663 1.000000 1.000000 0
63 1 73.462 255.174527 -0.546483 0.798101 1.000000 1.000000 0
64 1 288.880 52.412541 2.049903 -1.232625 1.000000 1.000000 0
65 1 45.190 230.367528 0.425732 -1.022278 1.000000 1.000000 0
66 1 175.957 198.533959 -0.819108 1.154406 1.000000 1.000000 0
67 1 245.645 301.562088 -0.764959 -0.402613 1.000000 1.000000 0
68 1 276.519 25.570989 0.156086 0.132867 1.000000 1.000000 0
69 1 264.289 203.112230 0.662197 -1.378492 1.000000 1.000000 0
70 1 35.880 47.475674 -1.258493 -0.591811 1.000000 1.000000 0
71 1 34.105 134.852343 -0.347312 0.084689 1.000000 1.000000 0
72 1 162.520 94.340155 1.175074 0.139479 1.000000 1.000000 0
73 1 27.417 38.418484 1.921086 -0.936765 1.000000 1.000000 0
74 1 51.926 9.178387 0.819198 -1.638324 1.000000 1.000000 0
75 1 308.241 163.886211 0.219407 0.996532 1.000000 1.000000 0
76 1 173.673 255.163460 -0.554611 0.610797 1.000000 1.000000 0
77 1 157.916 12.600900 0.302062 -0.898868 1.000000 1.000000 0
78 1 117.400 198.927608 1.263891 1.019787 1.000000 1.000000 0
79 1 304.990 50.772775 1.684542 0.384084 1.000000 1.000000 0
80 1 119.444 131.686121 -0.696586 0.858685 1.000000 1.000000 0
81 1 203.908 208.130853 0.456537 0.831950 1.000000 1.000000 0
82 1 273.299 252.435427 -1.221901 -0.155559 1.000000 1.000000 0
83 1 163.078 206.721491 0.222075 0.236190 1.000000 1.000000 0
84 1 173.749 73.798753 -0.840706 0.420723 1.000000 1.000000 0
85 1 238.538 135.144176 1.605120 0.541661 1.000000 1.000000 0
86 1 225.127 165.587726 -1.511130 -2.231924 1.000000 1.000000 0
87 1 111.210 275.236879 -0.271057 -0.144745 1.000000 1.000000 0
88 1 135.057 118.142234 1.080184 0.088145 1.000000 1.000000 0
89 1 275.409 221.311662 -0.908631 -1.861318 1.000000 1.000000 0
90 1 280.654 233.084149 -0.302918 -0.068541 1.000000 1.000000 0
91 1 195.475 196.262559 -1.913468 1.267198 1.000000 1.000000 0
92 1 233.288 146.422791 -0.286188 -0.307028 1.000000 1.000000 0
93 1 218.468 323.298063 0.823495 -0.803903 1.000000 1.000000 0
94 1 169.386 206.932682 -0.370864 -0.624432 1.000000 1.000000 0
95 1 52.410 218.252903 -0.012463 0.618074 1.000000 1.000000 0
96 1 207.450 200.986358 1.289344 0.346069 1.000000 1.000000 0
97 1 318.204 203.714910 1.323180 -0.225369 1.000000 1.000000 0
98 1 51.222 266.616112 -2.655056 -1.085418 1.000000 1.000000 0
99 1 65.265 294.491791 -1.541128 -1.220031 1.000000 1.000000 0
100 1 308.688 1.474481 -0.698595 -0.014003 1.000000 1.000000 0
101 1 24.157 119.377183 0.602993 -0.186297 1.000000 1.000000 0
102 1 134.589 279.747150 -1.023803 -1.031689 1.000000 1.000000 0
103 1 180.064 158.386472 -1.207861 -1.621973 1.000000 1.000000 0
104 1 85.731 264.442124 -0.396787 -0.333821 1.000000 1.000000 0
105 1 9.348 36.014279 -1.434417 -1.375637 1.000000 1.000000 0
106 1 141.882 54.181954 -0.572848 0.963123 1.000000 1.000000 0
107 1 290.827 56.115281 -1.209557 1.276996 1.000000 1.000000 0
108 1 21.225 99.757860 0.123245 -0.942287 1.000000 1.000000 0
109 1 130.731 316.194658 0.504156 1.217967 1.000000 1.000000 0
110 1 295.956 154.788538 0.476544 1.326829 1.000000 1.000000 0
111 1 96.566 161.184599 -1.775118 -0.161640 1.000000 1.000000 0
112 1 93.539 263.260602 0.973678 -0.713079 1.000000 1.000000 0
113 1 174.532 283.399120 -1.257132 1.089804 1.000000 1.000000 0
114 1 127.229 299.910887 -0.420783 0.151762 1.000000 1.000000 0
115 1 75.556 13.991471 -0.354834 -0.839322 1.000000 1.000000 0
116 1 177.954 254.780194 -0.357025 -0.218699 1.000000 1.000000 0
117 1 250.317 69.279494 0.840314 -0.290430 1.000000 1.000000 0
118 1 164.703 248.439531 -1.386112 -1.043030 1.000000 1.000000 0
119 1 131.494 102.356617 -1.263340 0.533825 1.000000 1.000000 0
120 1 66.375 15.594503 1.765693 -0.858260 1.000000 1.000000 0
121 1 231.662 250.697779 -1.760325 0.365752 1.000000 1.000000 0
122 1 139.681 122.176987 -0.434290 -0.210624 1.000000 1.000000 0
123 1 259.540 211.603754 -0.847240 0.577655 1.000000 1.000000 0
124 1 151.034 54.696118 1.668469 1.807235 1.000000 1.000000 0
125 1 72.343 250.488479 1.603295 0.683669 1.000000 1.000000 0
126 1 61.598 304.195706 -2.163642 0.981518 1.000000 1.000000 0
127 1 191.150 194.489614 -1.427782 0.657777 1.000000 1.000000 0
128 1 81.162 243.087776 -1.093902 0.574240 1.000000 1.000000 0
129 1 303.299 143.426805 -0.406577 0.950936 1.000000 1.000000 0
130 1 16.767 47.019000 0.976283 0.660036 1.000000 1.000000 0
131 1 226.721 169.433644 -1.552009 0.396670 1.000000 1.000000 0
132 1 207.982 223.960293 -1.651559 -0.105374 1.000000 1.000000 0
133 1 316.821 53.037348 0.243126 -0.656354 1.000000 1.000000 0
134 1 189.470 90.872260 1.412865 -0.416225 1.000000 1.000000 0
135 1 267.469 133.978466 0.888852 -0.472460 1.000000 1.000000 0
136 1 219.899 124.238176 -0.044899 0.037759 1.000000 1.000000 0
137 1 267.346 166.481142 0.766110 0.684014 1.000000 1.000000 0
138 1 86.643 228.044735 2.108642 -0.752737 1.000000 1.000000 0
139 1 54.319 305.742254 -1.071963 0.976682 1.000000 1.000000 0
140 1 232.067 273.882529 -1.097788 -0.805410 1.000000 1.000000 0
141 1 26.881 12.591681 -1.456318 -0.363392 1.000000 1.000000 0
142 1 42.247 222.008810 1.377853 -0.221703 1.000000 1.000000 0
143 1 105.503 55.087721 1.976922 0.420710 1.000000 1.000000 0
144 1 75.335 224.785226 1.572297 0.645794 1.000000 1.000000 0
145 1 316.425 125.516684 -0.162650 0.596494 1.000000 1.000000 0
146 1 22.029 278.091146 -0.239073 0.021221 1.000000 1.000000 0
147 1 201.686 134.335662 -0.299050 -1.208079 1.000000 1.000000 0
148 1 145.036 269.620838 -0.789431 0.446224 1.000000 1.000000 0
149 1 275.844 53.657840 0.272570 -0.185596 1.000000 1.000000 0
150 1 279.278 196.912128 1.481471 1.703568 1.000000 1.000000 0
151 1 261.499 112.334576 -0.171571 -1.243064 1.000000 1.000000 0
152 1 211.627 10.683679 0.933445 -1.269344 1.000000 1.000000 0
153 1 11.395 136.664310 0.091625 1.532226 1.000000 1.000000 0
154 1 285.238 24.843438 0.506440 -0.492567 1.000000 1.000000 0
155 1 51.193 283.619872 -1.825879 1.221704 1.000000 1.000000 0
156 1 318.126 72.487685 0.564755 0.035765 1.000000 1.000000 0
157 1 93.284 10.845998 0.410489 0.511352 1.000000 1.000000 0
158 1 115.984 225.040254 -0.242281 0.722869 1.000000 1.000000 0
159 1 322.646 303.574373 -0.111219 0.662653 1.000000 1.000000 0
160 1 141.202 229.016689 1.139245 -0.882410 1.000000 1.000000 0
161 1 317.626 317.007572 0.041195 0.642961 1.000000 1.000000 0
162 1 321.660 97.261173 0.283441 -1.004909 1.000000 1.000000 0
163 1 192.591 117.672765 -0.166709 1.009398 1.000000 1.000000 0
164 1 41.576 224.334015 0.511357 1.675671 1.000000 1.000000 0
165 1 295.967 185.079039 2.004110 0.705221 1.000000 1.000000 0
166 1 85.611 170.196914 0.447708 0.603249 1.000000 1.000000 0
167 1 51.107 41.781113 2.048625 1.310124 1.000000 1.000000 0
168 1 13.050 132.629358 -0.718632 -0.876194 1.000000 1.000000 0
169 1 102.439 156.516116 -1.451042 -0.935027 1.000000 1.000000 0
170 1 139.966 204.704893 -0.329663 0.014507 1.000000 1.000000 0
171 1 301.592 32.912615 -0.130656 0.412905 1.000000 1.000000 0
172 1 158.300 317.726177 -0.899079 1.871019 1.000000 1.000000 0
173 1 172.976 265.321800 0.279661 0.451576 1.000000 1.000000 0
174 1 290.367 277.593388 -1.382274 -1.034653 1.000000 1.000000 0
175 1 19.529 286.245129 -0.644914 0.853311 1.000000 1.000000 0
176 1 246.022 260.508273 -1.537093 -0.782105 1.000000 1.000000 0
177 1 28.346 280.752354 1.215521 0.636948 1.000000 1.000000 0
178 1 257.539 81.214248 -1.040273 0.339221 1.000000 1.000000 0
179 1 79.499 210.539985 0.537947 0.108909 1.000000 1.000000 0
180 1 277.014 115.700372 0.101952 -1.518033 1.000000 1.000000 0
181 1 254.286 98.958968 -0.348476 -1.014721 1.000000 1.000000 0
182 1 259.431 177.517001 1.472066 2.355688 1.000000 1.000000 0
183 1 201.057 231.757887 1.318651 0.017696 1.000000 1.000000 0
184 1 182.373 163.804844 -0.918100 0.167391 1.000000 1.000000 0
185 1 143.586 29.179147 0.201448 0.396375 1.000000 1.000000 0
186 1 95.641 97.981581 -1.916574 0.712873 1.000000 1.000000 0
187 1 119.778 100.733800 1.316613 -0.739157 1.000000 1.000000 0
188 1 94.425 217.763015 0.559955 0.739102 1.000000 1.000000 0
189 1 190.969 26.612219 -0.858030 -0.592949 1.000000 1.000000 0
190 1 24.653 298.481409 -0.605101 0.060641 1.000000 1.000000 0
191 1 33.801 205.618646 -0.356008 -0.518676 1.000000 1.000000 0
192 1 165.547 199.081604 -1.132241 0.156061 1.000000 1.000000 0
193 1 72.583 11.884822 -0.905355 0.125353 1.000000 1.000000 0
194 1 212.316 100.144595 -0.550886 0.179686 1.000000 1.000000 0
195 1 216.571 162.915146 0.724145 -1.146220 1.000000 1.000000 0
196 1 253.479 36.274533 -0.894134 -1.371623 1.000000 1.000000 0
197 1 150.693 295.662417 0.563847 -0.592152 1.000000 1.000000 0
198 1 186.584 46.744614 -0.923195 0.236975 1.000000 1.000000 0
199 1 213.778 230.145102 -0.381959 0.695844 1.000000 1.000000 0
200 1 1.087 44.629979 0.793112 0.643278 1.000000 1.000000 0
201 1 19.660 35.920977 -1.270344 -1.303800 1.000000 1.000000 0
202 1 203.415 206.130172 -1.243579 0.074126 1.000000 1.000000 0
203 1 294.195 127.443387 0.624249 -1.063490 1.000000 1.000000 0
204 1 132.286 93.937432 1.249642 -0.164916 1.000000 1.000000 0
205 1 273.268 90.134090 0.350351 0.957391 1.000000 1.000000 0
206 1 139.992 172.608847 -1.031891 1.406456 1.000000 1.000000 0
207 1 147.231 60.860370 0.808974 0.790981 1.000000 1.000000 0
208 1 22.781 23.438892 0.697564 0.372605 1.000000 1.000000 0
209 1 141.624 173.880089 1.104757 -0.540763 1.000000 1.000000 0
210 1 175.677 216.253032 0.680748 0.147653 1.000000 1.000000 0
211 1 206.841 141.989216 -1.223303 0.230911 1.000000 1.000000 0
212 1 289.758 95.110032 1.874293 -0.738174 1.000000 1.000000 0
213 1 251.365 187.003765 0.340166 -0.873256 1.000000 1.000000 0
214 1 172.065 110.983758 0.543722 -0.297471 1.000000 1.000000 0
215 1 65.944 138.013048 1.415326 -0.124874 1.000000 1.000000 0
216 1 97.602 256.241834 0.614103 -1.939072 1.000000 1.000000 0
217 1 102.667 276.047246 -0.358897 0.752819 1.000000 1.000000 0
218 1 204.480 103.338708 0.873060 0.213067 1.000000 1.000000 0
219 1 269.571 298.131800 -1.727738 0.916001 1.000000 1.000000 0
220 1 133.582 161.747967 -1.794804 -0.276187 1.000000 1.000000 0
221 1 266.645 144.233195 2.086082 0.589611 1.000000 1.000000 0
222 1 179.385 309.513422 0.592352 2.606510 1.000000 1.000000 0
223 1 119.898 78.663924 -2.689982 0.144901 1.000000 1.000000 0
224 1 234.996 113.420230 -0.551222 0.690578 1.000000 1.000000 0
225 1 119.105 252.519511 -0.778410 0.398838 1.000000 1.000000 0
226 1 217.365 51.645230 0.064888 -0.104391 1.000000 1.000000 0
227 1 60.170 218.112966 0.218717 -0.889374 1.000000 1.000000 0
228 1 299.255 304.951340 1.735907 -0.825984 1.000000 1.000000 0
229 1 69.260 180.479412 -1.614897 1.761777 1.000000 1.000000 0
230 1 57.447 161.233650 0.147819 -0.168444 1.000000 1.000000 0
231 1 269.674 20.445159 -0.015755 -1.628539 1.000000 1.000000 0
232 1 95.934 20.324002 -0.843895 -0.014274 1.000000 1.000000 0
233 1 109.539 145.461757 0.752229 1.509514 1.000000 1.000000 0
234 1 19.734 160.455862 -0.723889 -0.634201 1.000000 1.000000 0
235 1 40.139 178.424690 -0.389774 -0.079320 1.000000 1.000000 0
236 1 67.033 155.800484 1.432358 1.258569 1.000000 1.000000 0
237 1 161.492 124.656770 1.516706 -0.995043 1.000000 1.000000 0
238 1 119.658 169.443145 -0.125768 -0.364254 1.000000 1.000000 0
239 1 1.666 315.351676 -0.409937 1.332045 1.000000 1.000000 0
240 1 253.966 196.458227 -0.163196 -0.533159 1.000000 1.000000 0
241 1 219.429 82.330948 1.820880 -0.842635 1.000000 1.000000 0
242 1 232.507 299.281040 -0.696914 -0.346262 1.000000 1.000000 0
243 1 280.610 28.850351 -1.080461 0.004941 1.000000 1.000000 0
244 1 33.735 225.591287 -2.633367 0.912017 1.000000 1.000000 0
245 1 233.028 214.794261 -1.310915 1.000767 1.000000 1.000000 0
246 1 126.298 296.921081 0.824692 -1.631248 1.000000 1.000000 0
247 1 73.670 94.300993 0.044137 0.034611 1.000000 1.000000 0
248 1 227.993 44.760656 0.685724 0.807637 1.000000 1.000000 0
249 1 273.363 140.056508 0.813659 0.246091 1.000000 1.000000 0
250 1 239.451 270.287052 -1.012777 0.766745 1.000000 1.000000 0
251 1 242.624 189.792360 0.403750 0.364567 1.000000 1.000000 0
252 1 208.514 26.643239 -2.045006 -1.270389 1.000000 1.000000 0
253 1 59.233 36.389380 -1.150657 0.757914 1.000000 1.000000 0
254 1 11.686 98.095282 -0.472411 0.361544 1.000000 1.000000 0
255 1 91.745 132.802450 0.775361 0.236602 1.000000 1.000000 0
256 1 189.448 290.418563 -0.575396 0.502498 1.000000 1.000000 0
257 1 16.569 37.241496 -1.451172 0.764257 1.000000 1.000000 0
258 1 35.131 183.162030 -0.589194 0.132056 1.000000 1.000000 0
259 1 117.952 70.090555 -1.110856 -1.173319 1.000000 1.000000 0
260 1 158.036 185.175950 -1.174422 0.306841 1.000000 1.000000 0
261 1 210.999 94.663619 0.557863 0.572336 1.000000 1.000000 0
262 1 21.828 35.960403 -0.688948 -0.424735 1.000000 1.000000 0
263 1 16.112 97.097171 -0.611067 0.920707 1.000000 1.000000 0
264 1 174.503 189.279509 -0.704288 0.830769 1.000000 1.000000 0
265 1 206.906 159.616878 -1.448840 -0.458991 1.000000 1.000000 0
266 1 42.014 116.069294 -0.080501 -2.243287 1.000000 1.000000 0
267 1 192.880 295.599195 0.621787 -1.622745 1.000000 1.000000 0
268 1 29.583 261.468842 -2.559868 1.018525 1.000000 1.000000 0
269 1 106.247 203.951487 -0.977606 0.313187 1.000000 1.000000 0
270 1 259.907 27.096724 -1.575477 -1.241593 1.000000 1.000000 0
271 1 230.109 130.304034 -0.789691 1.069227 1.000000 1.000000 0
272 1 233.998 301.735158 0.190688 1.118945 1.000000 1.000000 0
273 1 12.573 34.696729 -0.176470 -1.121590 1.000000 1.000000 0
274 1 27.846 314.712115 1.443373 0.621213 1.000000 1.000000 0
275 1 223.746 309.583451 0.178665 -0.497792 1.000000 1.000000 0
276 1 279.049 97.805769 -0.036770 -0.829701 1.000000 1.000000 0
277 1 119.955 249.828305 0.054706 -0.716719 1.000000 1.000000 0
278 1 231.297 213.504826 -1.346806 -0.057664 1.000000 1.000000 0
279 1 36.355 113.322825 2.384169 0.819906 1.000000 1.000000 0
280 1 266.145 127.873153 -1.119870 0.805281 1.000000 1.000000 0
281 1 57.123 195.864902 -0.012133 1.266848 1.000000 1.000000 0
282 1 43.210 85.369080 1.091198 0.322092 1.000000 1.000000 0
283 1 309.585 52.484600 -0.016791 0.257680 1.000000 1.000000 0
284 1 266.808 31.775147 -1.586637 -0.065544 1.000000 1.000000 0
285 1 233.161 103.457446 0.978922 -0.185740 1.000000 1.000000 0
286 1 94.054 125.612167 -0.418954 0.641765 1.000000 1.000000 0
287 1 206.182 191.987202 0.499873 -0.525062 1.000000 1.000000 0
288 1 42.889 111.085075 0.334943 -1.194414 1.000000 1.000000 0
289 1 21.553 276.113083 1.189142 1.100242 1.000000 1.000000 0
290 1 284.519 96.224703 0.282987 1.793625 1.000000 1.000000 0
291 1 147.366 18.908289 -0.953940 0.291219 1.000000 1.000000 0
292 1 120.024 233.070208 -0.606899 1.044315 1.000000 1.000000 0
293 1 301.743 133.816703 -0.816871 0.982624 1.000000 1.000000 0
294 1 29.068 284.257786 0.138577 -1.783823 1.000000 1.000000 0
295 1 299.577 190.373515 0.230831 -0.420964 1.000000 1.000000 0
296 1 212.438 163.765307 0.764169 0.016236 1.000000 1.000000 0
297 1 212.200 72.479933 2.422645 -0.779951 1.000000 1.000000 0
298 1 159.945 279.226214 -0.454432 -0.366451 1.000000 1.000000 0
299 1 112.929 230.754274 -0.834806 1.521441 1.000000 1.000000 0
300 1 168.993 235.242513 0.458966 0.026200 1.000000 1.000000 0
301 1 76.361 129.840167 -0.719791 0.101041 1.000000 1.000000 0
302 1 157.406 299.391979 -0.716204 1.057259 1.000000 1.000000 0
303 1 239.822 106.406291 -1.179364 1.155065 1.000000 1.000000 0
304 1 16.914 55.201503 -2.183491 -0.903372 1.000000 1.000000 0
305 1 72.815 55.540695 -0.653736 0.004103 1.000000 1.000000 0
306 1 112.845 300.044002 0.101378 0.689639 1.000000 1.000000 0
307 1 38.442 307.803841 -0.299238 -0.955532 1.000000 1.000000 0
308 1 168.419 308.963133 -0.939393 0.600481 1.000000 1.000000 0
309 1 47.617 195.748185 -0.848845 0.121977 1.000000 1.000000 0
310 1 279.277 18.787389 -0.575160 -1.782204 1.000000 1.000000 0
311 1 2.612 172.520523 0.233929 1.129934 1.000000 1.000000 0
312 1 227.015 34.683936 1.243819 0.579447 1.000000 1.000000 0
313 1 93.341 104.112592 -0.448076 1.003569 1.000000 1.000000 0
314 1 132.669 256.228843 -2.182983 -2.387286 1.000000 1.000000 0
315 1 9.307 250.738890 -0.139933 -1.319793 1.000000 1.000000 0
316 1 236.968 277.713124 -0.372223 0.077517 1.000000 1.000000 0
317 1 183.506 165.729625 1.530535 -0.396479 1.000000 1.000000 0
318 1 148.402 205.603586 -0.601024 -1.921455 1.000000 1.000000 0
319 1 250.268 188.974419 0.808079 -1.560125 1.000000 1.000000 0
320 1 59.163 114.048437 -0.973482 -0.323810 1.000000 1.000000 0
321 1 261.935 43.180362 -0.316592 0.671403 1.000000 1.000000 0
322 1 237.394 125.046802 -0.374160 -0.119095 1.000000 1.000000 0
323 1 48.762 190.790183 -1.539616 -0.495692 1.000000 1.000000 0
324 1 229.217 307.552201 -0.587146 -0.161710 1.000000 1.000000 0
325 1 185.729 264.969476 -1.486277 -0.599808 1.000000 1.000000 0
326 1 257.973 209.699836 -0.856336 -0.707171 1.000000 1.000000 0
327 1 209.147 146.612599 -0.595807 -0.325431 1.000000 1.000000 0
328 1 25.990 162.515299 -1.658655 0.091447 1.000000 1.000000 0
329 1 251.042 203.640184 2.059523 0.347650 1.000000 1.000000 0
330 1 315.312 118.992336 -0.235607 -2.098650 1.000000 1.000000 0
331 1 202.919 303.508383 1.576599 -1.468651 1.000000 1.000000 0
332 1 112.907 323.088809 0.697602 -2.215314 1.000000 1.000000 0
333 1 274.218 193.356191 -0.060904 -0.400237 1.000000 1.000000 0
334 1 273.063 115.625956 -2.333017 -1.130445 1.000000 1.000000 0
335 1 126.186 97.879070 0.358883 0.420019 1.000000 1.000000 0
336 1 15.132 73.122928 -1.195125 0.069739 1.000000 1.000000 0
337 1 229.206 319.075376 0.870235 1.522173 1.000000 1.000000 0
338 1 265.664 45.921832 -0.091251 1.730474 1.000000 1.000000 0
339 1 279.941 291.066037 -0.923040 -1.795759 1.000000 1.000000 0
340 1 284.848 297.890845 0.085833 0.617557 1.000000 1.000000 0
341 1 288.940 239.050250 0.289782 0.111673 1.000000 1.000000 0
342 1 86.674 52.157131 0.673861 -1.259254 1.000000 1.000000 0
343 1 69.290 215.426368 0.609282 0.967629 1.000000 1.000000 0
344 1 20.529 246.620746 0.826268 0.312437 1.000000 1.000000 0
345 1 289.032 307.704970 0.164780 0.275828 1.000000 1.000000 0
346 1 28.886 124.634080 0.178751 -0.141354 1.000000 1.000000 0
347 1 269.560 313.237800 0.178958 0.036328 1.000000 1.000000 0
348 1 75.321 177.989071 0.809624 -0.558040 1.000000 1.000000 0
349 1 278.780 64.360930 -1.782656 2.101595 1.000000 1.000000 0
350 1 53.845 96.434184 -0.907576 0.211618 1.000000 1.000000 0
351 1 96.722 38.257286 0.349399 0.093146 1.000000 1.000000 0
352 1 250.529 40.515398 0.995595 -0.226302 1.000000 1.000000 0
353 1 123.953 271.300965 0.353819 0.992522 1.000000 1.000000 0
354 1 150.983 114.607494 -1.468180 -0.202776 1.000000 1.000000 0
355 1 273.800 180.308724 0.489842 0.784732 1.000000 1.000000 0
356 1 54.326 196.119326 0.919087 1.299179 1.000000 1.000000 0
357 1 318.933 217.161246 0.506086 -0.268893 1.000000 1.000000 0
358 1 279.355 178.221366 -0.010035 0.660004 1.000000 1.000000 0
359 1 55.989 151.851474 -0.279942 -0.810052 1.000000 1.000000 0
360 1 263.181 81.455973 -1.080245 -0.747431 1.000000 1.000000 0
361 1 181.619 9.439408 1.311413 -0.851798 1.000000 1.000000 0
362 1 147.506 254.253713 0.169452 -1.786121 1.000000 1.000000 0
363 1 7.957 87.311587 -1.873156 0.540493 1.000000 1.000000 0
364 1 295.111 180.540696 -0.301924 -0.823683 1.000000 1.000000 0
365 1 124.966 216.679577 -1.805238 -0.157996 1.000000 1.000000 0
366 1 303.785 1.595141 2.699589 -1.052673 1.000000 1.000000 0
367 1 207.253 68.197096 0.963405 1.142252 1.000000 1.000000 0
368 1 98.432 288.588593 0.134746 1.753376 1.000000 1.000000 0
369 1 28.592 172.229707 0.310134 -0.217796 1.000000 1.000000 0
370 1 51.360 273.402875 0.109833 -0.385034 1.000000 1.000000 0
371 1 64.224 195.654303 0.232482 -1.789185 1.000000 1.000000 0
372 1 56.752 68.365057 1.045114 -0.455577 1.000000 1.000000 0
373 1 109.982 63.696789 -1.930207 -0.127867 1.000000 1.000000 0
374 1 163.216 146.977254 -0.540426 -0.585852 1.000000 1.000000 0
375 1 236.752 133.547520 1.690310 -1.460152 1.000000 1.000000 0
376 1 71.426 151.720064 0.101593 -0.375508 1.000000 1.000000 0
377 1 55.235 17.635399 0.842277 -0.317233 1.000000 1.000000 0
378 1 213.797 173.234674 -0.921531 -1.633997 1.000000 1.000000 0
379 1 134.433 100.789047 -0.623381 -0.414432 1.000000 1.000000 0
380 1 240.093 274.814157 -0.171216 -0.149678 1.000000 1.000000 0
381 1 126.971 208.969093 -0.804127 0.524219 1.000000 1.000000 0
382 1 153.676 204.367050 -1.605622 -1.633544 1.000000 1.000000 0
383 1 212.117 77.480467 -1.891312 0.163134 1.000000 1.000000 0
384 1 282.480 53.911054 0.028227 0.121564 1.000000 1.000000 0
385 1 73.955 80.910029 -1.792515 0.802613 1.000000 1.000000 0
386 1 126.162 41.521322 -0.631820 -1.359529 1.000000 1.000000 0
387 1 19.252 204.611804 -1.071074 0.550851 1.000000 1.000000 0
388 1 117.898 63.602572 0.356480 0.922449 1.000000 1.000000 0
389 1 47.843 270.477464 0.581763 0.155095 1.000000 1.000000 0
390 1 78.773 22.109944 1.791977 -1.212460 1.000000 1.000000 0
391 1 22.285 51.357244 -0.198370 0.603121 1.000000 1.000000 0
392 1 254.566 179.758080 1.451389 0.597980 1.000000 1.000000 0
393 1 92.375 7.110102 0.819311 0.018629 1.000000 1.000000 0
394 1 220.844 197.717636 -0.989612 -0.587960 1.000000 1.000000 0
395 1 265.269 181.120161 -0.242525 -2.507668 1.000000 1.000000 0
396 1 288.362 39.888029 -0.351846 1.358948 1.000000 1.000000 0
397 1 137.632 45.251199 0.881689 0.696315 1.000000 1.000000 0
398 1 235.451 178.050219 1.063364 -0.184214 1.000000 1.000000 0
399 1 148.269 246.424467 0.466506 -0.959444 1.000000 1.000000 0
400 1 206.272 174.584418 0.051314 0.764548 1.000000 1.000000 0
401 1 50.200 2.324033 -0.181694 -2.032004 1.000000 1.000000 0
402 1 75.904 84.201081 0.261620 -0.406738 1.000000 1.000000 0
403 1 131.742 155.472924 -0.531457 -0.816854 1.000000 1.000000 0
404 1 237.094 10.231282 -1.113191 0.356421 1.000000 1.000000 0
405 1 285.579 251.649913 0.643762 1.354674 1.000000 1.000000 0
406 1 315.004 39.956794 0.839419 0.881620 1.000000 1.000000 0
407 1 94.811 236.543526 1.079010 1.613512 1.000000 1.000000 0
408 1 34.535 123.169782 -1.555334 1.640036 1.000000 1.000000 0
409 1 188.008 317.477712 2.522591 0.699104 1.000000 1.000000 0
410 1 239.168 216.629908 -0.854876 -0.083687 1.000000 1.000000 0
411 1 103.572 219.652992 0.224562 1.187770 1.000000 1.000000 0
412 1 264.588 64.009683 0.109892 0.290704 1.000000 1.000000 0
413 1 210.994 221.838649 -0.650409 0.537669 1.000000 1.000000 0
414 1 3.805 88.617000 -0.723161 -0.302116 1.000000 1.000000 0
415 1 254.910 1.512247 0.908109 -0.130865 1.000000 1.000000 0
416 1 94.245 221.815667 1.956114 -0.701438 1.000000 1.000000 0
417 1 196.531 224.530402 1.472930 0.415059 1.000000 1.000000 0
418 1 16.846 291.784078 -0.391918 0.261575 1.000000 1.000000 0
419 1 158.344 25.278774 -0.029974 -0.785908 1.000000 1.000000 0
420 1 68.449 279.897846 0.758336 -0.520256 1.000000 1.000000 0
421 1 103.359 177.934356 -0.671340 -0.608478 1.000000 1.000000 0
422 1 170.317 179.611108 0.626965 0.598854 1.000000 1.000000 0
423 1 283.739 63.689972 -1.512317 -0.763629 1.000000 1.000000 0
424 1 157.574 149.920053 1.454565 -1.204670 1.000000 1.000000 0
425 1 216.939 320.432228 -2.441224 0.251467 1.000000 1.000000 0
426 1 22.421 13.168201 -0.004527 -1.054261 1.000000 1.000000 0
427 1 32.342 62.951950 0.031020 -1.088917 1.000000 1.000000 0
428 1 303.510 305.348989 -0.935623 1.066064 1.000000 1.000000 0
429 1 279.958 210.358954 1.930625 -0.548785 1.000000 1.000000 0
430 1 196.664 288.544397 1.224365 -1.022093 1.000000 1.000000 0
431 1 297.534 205.250237 -0.417853 -0.959619 1.000000 1.000000 0
432 1 237.630 243.184747 -0.951061 0.861894 1.000000 1.000000 0
433 1 274.683 225.302873 1.170428 0.420789 1.000000 1.000000 0
434 1 200.220 215.065902 -1.110104 0.682990 1.000000 1.000000 0
435 1 158.896 14.813468 0.372588 -0.196772 1.000000 1.000000 0
436 1 69.948 49.724106 1.183452 -3.040088 1.000000 1.000000 0
437 1 191.949 182.782766 -0.316030 -1.281598 1.000000 1.000000 0
438 1 316.764 85.533394 -0.081819 1.241549 1.000000 1.000000 0
439 1 184.119 215.846037 -0.881577 -1.721786 1.000000 1.000000 0
440 1 320.340 304.797551 1.352284 -0.198951 1.000000 1.000000 0
441 1 109.783 1.942939 0.960927 -1.632640 1.000000 1.000000 0
442 1 234.373 156.136139 0.329770 0.247707 1.000000 1.000000 0
443 1 220.828 9.351566 1.784923 0.141721 1.000000 1.000000 0
444 1 133.590 159.574704 0.390951 -0.501712 1.000000 1.000000 0
445 1 217.460 233.109704 -0.864101 0.426248 1.000000 1.000000 0
446 1 162.569 161.106705 -0.513656 0.324903 1.000000 1.000000 0
447 1 12.905 160.140446 -0.906665 2.078882 1.000000 1.000000 0
448 1 243.290 253.208871 -0.732956 0.753136 1.000000 1.000000 0
449 1 240.333 322.289913 -1.688088 -0.621447 1.000000 1.000000 0
450 1 265.649 117.163871 1.340344 -0.506839 1.000000 1.000000 0
451 1 102.409 263.877598 -0.100621 -1.330782 1.000000 1.000000 0
452 1 307.842 250.018016 -0.915104 0.084443 1.000000 1.000000 0
453 1 188.064 117.602242 1.203077 0.396550 1.000000 1.000000 0
454 1 263.777 41.835785 0.284471 0.211568 1.000000 1.000000 0
455 1 248.267 199.565374 -0.074549 -0.306641 1.000000 1.000000 0
456 1 138.398 321.977847 0.106604 -0.448095 1.000000 1.000000 0
457 1 47.052 66.660307 -0.841671 1.281853 1.000000 1.000000 0
458 1 290.105 20.513252 -0.048646 -0.348478 1.000000 1.000000 0
459 1 248.615 286.496613 1.074719 -0.762874 1.000000 1.000000 0
460 1 164.557 162.541857 0.224395 0.811761 1.000000 1.000000 0
461 1 155.979 109.806672 1.350437 -0.758493 1.000000 1.000000 0
462 1 226.220 144.403779 0.063904 -0.739152 1.000000 1.000000 0
463 1 252.398 164.612491 1.057284 -0.115965 1.000000 1.000000 0
464 1 143.076 285.390934 -0.531257 -0.822122 1.000000 1.000000 0
465 1 88.579 70.235256 -0.681546 -1.151698 1.000000 1.000000 0
466 1 36.015 180.413972 1.659084 -0.191619 1.000000 1.000000 0
467 1 176.869 119.729956 -0.932110 -0.872039 1.000000 1.000000 0
468 1 101.609 20.280168 0.789046 -0.616319 1.000000 1.000000 0
469 1 26.317 45.052613 -0.612556 1.896263 1.000000 1.000000 0
470 1 236.159 107.578166 0.389554 0.498051 1.000000 1.000000 0
471 1 155.737 86.879024 0.630843 -0.381842 1.000000 1.000000 0